ITEM: TIMESTEP
0
ITEM: NUMBER OF ATOMS
1372
ITEM: BOX BOUNDS pp pp pp
-2.0840171298419436e+00 2.3084017129841957e+01
-2.0840171298419436e+00 2.3084017129841957e+01
-2.0840171298419436e+00 2.3084017129841957e+01
ITEM: ATOMS id type xs ys zs
8 2 0.145495 0.0733316 0.076725
6 4 0.214558 0.0723219 0.00722834
11 4 0.35101 0.00265725 0.0734354
12 2 0.287694 0.0729596 0.0709902
10 2 0.353314 0.0690888 0.00279157
14 4 0.426061 0.0693485 0.0775226
687 5 0.496619 0.079477 0.00121835
17 4 0.0719633 0.142322 0.0712752
16 5 0.0709247 0.204966 0.000305747
22 3 0.143585 0.205567 0.0695526
21 1 0.216703 0.144472 0.0748971
19 2 0.145161 0.136703 0.000792828
25 2 0.360571 0.135662 0.0711339
26 1 0.287121 0.214068 0.072987
24 4 0.358833 0.204415 0.00633011
702 3 0.49769 0.143426 0.079844
28 2 0.436325 0.206348 0.0721027
701 5 0.49835 0.213901 0.0011372
30 5 0.0589915 0.0741994 0.141776
33 1 0.133401 0.00124725 0.144047
36 5 0.141217 0.0692198 0.214896
34 4 0.216318 0.0737455 0.139287
38 4 0.353154 0.0685239 0.147036
40 3 0.280256 0.0680764 0.214104
42 5 0.425942 0.0692853 0.21084
44 3 0.0731822 0.211064 0.145886
45 2 0.0668144 0.142007 0.214795
47 1 0.143994 0.142245 0.145711
50 2 0.145717 0.216037 0.211721
49 3 0.214295 0.141796 0.213628
48 2 0.21421 0.209606 0.143264
54 5 0.284451 0.21737 0.212117
52 4 0.358959 0.208337 0.138971
53 5 0.358131 0.140931 0.212658
51 2 0.290093 0.142527 0.136671
730 2 0.492957 0.139422 0.213849
55 1 0.424107 0.140814 0.150205
56 3 0.423278 0.208158 0.219186
729 4 0.498983 0.215581 0.14943
58 1 0.0733855 0.0625901 0.285099
64 4 0.140684 0.0673836 0.354379
62 4 0.208601 0.0649317 0.283554
68 4 0.28541 0.0714187 0.359482
66 4 0.356637 0.0687705 0.286087
70 1 0.434439 0.0691944 0.361809
72 2 0.0774089 0.21234 0.285696
73 2 0.0768155 0.140445 0.351042
75 2 0.148294 0.145726 0.280892
78 3 0.141888 0.210901 0.349051
76 2 0.219116 0.217953 0.289193
77 1 0.216262 0.143015 0.351299
81 3 0.360377 0.138103 0.358901
79 5 0.288863 0.146939 0.285212
82 2 0.286221 0.217282 0.363441
80 5 0.352038 0.219994 0.281609
84 5 0.432053 0.212489 0.349013
83 4 0.429989 0.139627 0.289213
100 1 0.00644715 0.074259 0.496994
86 3 0.0734659 0.065704 0.422629
88 5 0.211562 0.0665324 0.42604
102 4 0.139355 0.0754698 0.491946
90 1 0.357734 0.069082 0.422759
104 4 0.286848 0.0608959 0.494849
105 1 0.419923 0.0696863 0.497183
91 2 0.4288 0.00501985 0.428775
785 1 0.494248 0.00304631 0.496175
106 2 0.0722506 0.143563 0.492806
93 5 0.0727923 0.209521 0.42523
107 2 0.00273616 0.211402 0.497433
95 4 0.209034 0.215172 0.421838
94 1 0.143706 0.144208 0.426429
108 2 0.221499 0.143867 0.491011
109 5 0.145264 0.211149 0.491598
110 2 0.351673 0.139337 0.493558
97 3 0.365097 0.218559 0.424524
96 2 0.293273 0.144154 0.426657
111 3 0.289227 0.217095 0.498121
98 3 0.431952 0.14149 0.438156
778 2 0.499885 0.209475 0.422471
112 2 0.428694 0.217573 0.497402
114 4 0.0726779 0.0692173 0.558662
118 3 0.219046 0.0711216 0.560611
122 3 0.354942 0.0708096 0.572972
125 4 0.425817 0.00491699 0.570338
127 5 0.00875273 0.140087 0.571258
128 3 0.0644062 0.213466 0.572873
131 5 0.147325 0.146629 0.564161
132 2 0.211863 0.217782 0.562173
136 1 0.358418 0.209776 0.564185
135 4 0.285952 0.144718 0.571687
813 4 0.49734 0.207266 0.564177
139 4 0.430956 0.135793 0.564623
142 3 0.068701 0.067275 0.707121
116 4 0.00499188 0.0683724 0.638161
119 5 0.221513 0.00313331 0.637366
143 1 0.144122 0.00203665 0.712855
144 3 0.21505 0.0765165 0.709628
120 3 0.137324 0.0711452 0.636577
146 3 0.367232 0.0715145 0.717973
124 2 0.284155 0.0746402 0.64372
145 3 0.282159 0.00173666 0.715476
827 5 0.494993 0.0706896 0.720332
126 5 0.429008 0.0728645 0.640289
149 5 0.0702863 0.214858 0.719361
129 5 0.0760588 0.137774 0.646548
150 2 0.146356 0.138427 0.713529
133 1 0.210413 0.138444 0.643363
151 2 0.214202 0.212861 0.70673
134 5 0.145522 0.210946 0.635568
137 5 0.362206 0.14064 0.63947
138 1 0.289508 0.209449 0.648891
152 5 0.286066 0.13971 0.711134
153 3 0.359783 0.207166 0.709655
140 3 0.426288 0.221235 0.635649
814 3 0.497241 0.140909 0.645104
154 4 0.432361 0.145339 0.709782
170 3 0.0701504 0.0734593 0.864553
155 3 0.0785051 0.00599008 0.784931
158 2 0.146454 0.0753131 0.782918
174 4 0.219628 0.0706389 0.85682
157 2 0.210416 0.00406791 0.788484
173 1 0.132907 0.00106823 0.858123
160 4 0.289402 0.0743807 0.782169
178 1 0.358088 0.0664619 0.864123
181 2 0.430625 0.0035817 0.863685
161 3 0.426047 0.0706618 0.79384
162 5 0.0669113 0.133127 0.793321
184 4 0.0661107 0.208114 0.857453
165 5 0.145441 0.208998 0.784321
187 2 0.141997 0.137762 0.855332
164 1 0.21574 0.146124 0.786871
188 4 0.221542 0.211584 0.849406
192 5 0.352267 0.209204 0.854781
167 4 0.284264 0.210124 0.782464
191 1 0.28493 0.142443 0.856232
166 2 0.352563 0.143223 0.782159
195 4 0.424106 0.143533 0.858562
168 5 0.432593 0.216694 0.787598
869 4 0.497265 0.213624 0.858385
171 4 0.0677486 0.00292386 0.932158
2 3 0.0632005 0.0711864 0.993362
176 1 0.139478 0.073999 0.925628
5 2 0.13986 0.000560518 0.99883
179 5 0.353029 0.00157334 0.926385
180 4 0.285184 0.071121 0.930573
182 1 0.426707 0.0718762 0.935234
856 5 0.499024 0.00711775 0.93113
15 5 0.000128723 0.144434 0.996346
186 1 0.00667479 0.2141 0.936415
185 2 0.0708759 0.147199 0.928134
189 3 0.2147 0.135257 0.931433
190 5 0.141882 0.210295 0.937411
20 2 0.214769 0.214219 0.997757
194 2 0.283856 0.213361 0.925077
193 1 0.360562 0.143069 0.926036
23 1 0.28585 0.144547 0.996307
196 3 0.42334 0.212918 0.932309
870 1 0.498282 0.144007 0.93026
27 1 0.432103 0.141525 0.997529
199 4 0.0629107 0.28376 0.0752177
197 5 0.00145159 0.285765 0.001154
198 2 0.0695716 0.356724 0.00466496
204 2 0.138316 0.358504 0.0750935
203 3 0.214124 0.278748 0.0684568
202 5 0.216538 0.350047 0.0031432
201 4 0.142801 0.285224 0.00156044
208 4 0.2809 0.351315 0.0690451
207 1 0.357656 0.28361 0.0719116
205 4 0.291097 0.2799 0.000318973
210 5 0.429008 0.343529 0.0765819
212 3 0.0750422 0.426832 0.0671042
211 1 0.00414617 0.433375 0.00797141
214 4 0.217954 0.423425 0.0744469
347 5 0.149515 0.498944 0.0625507
216 4 0.360404 0.424815 0.0673865
1030 4 0.497575 0.495996 0.00164346
217 3 0.426577 0.41995 0.00140464
897 3 0.495105 0.419787 0.0777465
219 3 0.0745271 0.370806 0.138621
220 2 0.0743277 0.282688 0.209865
221 5 0.00345717 0.362126 0.216595
222 4 0.14534 0.281014 0.136292
225 3 0.134809 0.356945 0.215419
223 5 0.211479 0.3542 0.142561
224 2 0.209721 0.291474 0.211169
228 4 0.358664 0.286673 0.216772
227 4 0.355429 0.351849 0.135175
226 4 0.281327 0.288397 0.147627
229 1 0.277128 0.359021 0.219652
905 2 0.493996 0.286523 0.219458
231 1 0.424441 0.355121 0.207814
230 5 0.431143 0.281106 0.149752
904 2 0.498976 0.350451 0.152208
233 3 0.0738915 0.433178 0.216773
232 4 0.00106482 0.432465 0.142306
234 3 0.150945 0.431092 0.149019
235 2 0.216858 0.429105 0.2158
375 3 0.152711 0.497841 0.223855
376 2 0.362768 0.492127 0.138039
237 2 0.357544 0.420432 0.210661
236 4 0.284156 0.422916 0.143041
238 1 0.42648 0.419254 0.145005
1058 2 0.497274 0.497811 0.13865
918 5 0.483649 0.428931 0.216902
240 2 0.0726941 0.355095 0.284549
241 5 0.0721028 0.28966 0.360479
242 2 0.00394562 0.357393 0.354312
239 4 0.00168995 0.28338 0.281844
243 2 0.141829 0.28195 0.289951
246 1 0.14077 0.360929 0.358764
244 5 0.205648 0.355266 0.285261
245 4 0.211517 0.286607 0.358338
247 4 0.285096 0.291905 0.283152
250 4 0.282538 0.357316 0.359899
248 5 0.35455 0.356319 0.288975
249 4 0.357255 0.282202 0.356366
251 3 0.425769 0.286179 0.288876
252 4 0.423179 0.359678 0.352925
926 4 0.495701 0.286884 0.354612
925 5 0.492987 0.356247 0.282948
254 1 0.0763498 0.434941 0.356748
400 2 0.0697035 0.499329 0.282999
403 5 0.143159 0.498186 0.35489
255 2 0.146494 0.424694 0.289149
256 1 0.218421 0.432878 0.355566
402 1 0.21861 0.496903 0.283567
257 1 0.286377 0.428398 0.284762
258 1 0.3552 0.427278 0.358568
405 3 0.290685 0.499097 0.35345
404 5 0.354025 0.490829 0.270994
259 4 0.422101 0.431634 0.288736
406 5 0.433402 0.497968 0.359268
271 4 0.0745502 0.285088 0.494482
261 1 0.0707454 0.356667 0.427934
272 2 0.000174052 0.354037 0.497825
273 4 0.218524 0.286497 0.497038
262 2 0.148617 0.291584 0.431606
263 5 0.214971 0.362617 0.429289
265 1 0.360187 0.365198 0.425512
264 5 0.293669 0.293595 0.434464
276 1 0.29021 0.36108 0.49668
956 1 0.496158 0.279305 0.498094
266 4 0.432266 0.29285 0.427036
277 3 0.433123 0.368506 0.497667
267 2 0.00210573 0.423101 0.423251
428 2 0.0795898 0.498425 0.426036
442 5 0.00700311 0.498363 0.490768
268 1 0.142428 0.427933 0.437722
269 2 0.282319 0.433503 0.429701
430 3 0.358088 0.497089 0.429537
270 2 0.440258 0.430791 0.435792
282 5 0.076646 0.354947 0.571287
281 4 0.00144664 0.283951 0.568699
285 3 0.14256 0.28245 0.561143
286 3 0.21294 0.355837 0.568785
274 1 0.1412 0.354502 0.501582
289 2 0.285125 0.286143 0.566166
290 4 0.358655 0.362208 0.572834
275 5 0.361114 0.287098 0.505625
293 3 0.435952 0.284184 0.564776
295 2 0.00823703 0.428814 0.569507
278 3 0.0737548 0.425359 0.50151
297 2 0.144484 0.426383 0.57352
279 2 0.211259 0.421585 0.506279
443 4 0.153078 0.496806 0.508996
460 5 0.35588 0.499606 0.572898
299 5 0.28143 0.425587 0.575891
280 3 0.359373 0.430148 0.505567
301 1 0.428295 0.427752 0.573395
283 1 0.0748673 0.279456 0.637331
303 5 0.0755713 0.352481 0.715625
288 5 0.139761 0.351316 0.640026
304 1 0.136842 0.280951 0.706176
287 5 0.214799 0.285362 0.637402
305 4 0.211664 0.356573 0.706055
307 3 0.360491 0.358981 0.712178
291 3 0.354703 0.282634 0.638804
292 1 0.287997 0.351677 0.640719
306 5 0.283819 0.280422 0.714442
308 4 0.431419 0.28445 0.714808
294 3 0.43218 0.361529 0.638449
968 2 0.496157 0.284101 0.637843
988 3 0.494283 0.357013 0.707923
309 3 0.00210256 0.427785 0.711638
296 4 0.0705878 0.42859 0.638636
484 2 0.0709236 0.491791 0.711323
485 5 0.211481 0.499326 0.711712
310 2 0.141671 0.429214 0.709136
298 2 0.2127 0.426983 0.644888
311 1 0.28427 0.417705 0.712075
300 5 0.351939 0.428082 0.648206
486 1 0.346789 0.494712 0.71987
461 3 0.284195 0.498932 0.648007
312 4 0.429361 0.427207 0.717162
981 2 0.497668 0.425607 0.64194
462 5 0.42451 0.49809 0.647629
313 2 0.0689793 0.278878 0.785147
324 2 0.0701051 0.352903 0.853731
323 3 0.00357833 0.283056 0.861925
314 1 0.00259486 0.358764 0.78222
316 3 0.146811 0.350696 0.784614
327 4 0.144139 0.274344 0.853578
315 1 0.214165 0.282685 0.783122
328 2 0.215735 0.349252 0.860292
318 3 0.286187 0.358618 0.783845
331 1 0.291539 0.28164 0.853391
317 4 0.358477 0.287034 0.781528
332 2 0.356637 0.35132 0.859731
1009 2 0.499669 0.358223 0.856652
319 1 0.432238 0.354615 0.78656
335 5 0.428513 0.28626 0.857983
320 4 0.0730986 0.428857 0.787314
498 5 0.00777149 0.49867 0.787377
339 5 0.136304 0.420782 0.862213
321 1 0.215546 0.426545 0.78389
514 3 0.214691 0.494714 0.856889
499 1 0.145179 0.494319 0.784475
341 1 0.280544 0.41859 0.856266
322 1 0.356675 0.425849 0.787971
500 5 0.278932 0.495571 0.795999
516 2 0.349922 0.493352 0.857113
343 5 0.427034 0.42362 0.861149
1005 3 0.495881 0.425425 0.787716
326 4 0.00449629 0.357939 0.92986
325 3 0.0747202 0.276295 0.929313
330 1 0.143253 0.356612 0.933864
329 2 0.214456 0.275786 0.928037
333 2 0.356509 0.281658 0.925693
334 1 0.282543 0.35134 0.924554
206 1 0.357483 0.35196 0.998209
336 5 0.432878 0.352986 0.928686
209 4 0.427388 0.283966 0.992408
338 2 0.069996 0.427052 0.926323
344 4 0.0773577 0.49892 0.997384
515 2 0.143732 0.497066 0.926486
340 4 0.215345 0.423993 0.932153
346 3 0.208992 0.494247 0.999606
213 2 0.140256 0.426851 0.995841
215 5 0.284198 0.427198 0.995331
348 5 0.351283 0.498135 0.993238
342 3 0.353382 0.420445 0.925137
518 4 0.429387 0.498048 0.923222
1023 4 0.499119 0.43273 0.936578
353 3 0.0708757 0.569584 0.0628833
357 1 0.218191 0.579556 0.071974
361 2 0.3584 0.570671 0.0740942
359 4 0.283772 0.5706 0.000694924
349 1 0.285247 0.503072 0.0654608
1038 1 0.494747 0.578532 0.0703462
350 3 0.428404 0.503679 0.0661859
354 4 0.00368952 0.644137 0.069754
366 5 0.0756633 0.712235 0.0670817
352 4 0.0798222 0.653469 0.00233235
367 1 0.149051 0.721642 0.00463951
358 2 0.145634 0.638686 0.0741995
368 4 0.21187 0.716765 0.0735581
362 5 0.282865 0.646181 0.0702605
370 4 0.354929 0.714662 0.073343
369 3 0.282361 0.719116 0.00131848
371 3 0.429645 0.720512 0.00268075
364 1 0.425243 0.643033 0.0662029
381 3 0.070978 0.574876 0.213195
373 5 0.00311371 0.510199 0.213034
372 3 0.079965 0.502752 0.146497
383 4 0.146799 0.574744 0.148679
385 3 0.221409 0.577333 0.213502
374 3 0.213939 0.50722 0.133078
389 3 0.364336 0.572069 0.217061
387 4 0.296889 0.569983 0.140676
377 4 0.286408 0.505543 0.20329
378 2 0.432026 0.507209 0.205092
391 2 0.430869 0.574414 0.134327
1066 1 0.498311 0.573339 0.206867
380 5 0.0694501 0.639616 0.144554
394 2 0.0699803 0.713006 0.21729
382 1 0.000596609 0.644797 0.222539
384 1 0.221827 0.638473 0.143597
396 5 0.219193 0.713931 0.213331
395 3 0.147104 0.705269 0.147653
386 1 0.144308 0.641016 0.222365
390 4 0.296782 0.645038 0.211429
397 1 0.288437 0.713548 0.14107
388 1 0.360763 0.645448 0.142839
398 4 0.357611 0.717201 0.210735
399 3 0.430805 0.710057 0.143051
392 4 0.422847 0.645679 0.213711
409 1 0.0746821 0.571059 0.356392
407 4 0.0069526 0.575572 0.286954
411 5 0.146622 0.569326 0.283467
413 4 0.226481 0.566276 0.360494
415 2 0.290473 0.572415 0.281726
417 4 0.36293 0.570629 0.359708
1086 3 0.490195 0.501431 0.284417
419 4 0.434102 0.577321 0.288478
410 3 0.00374728 0.646238 0.357558
408 3 0.0773129 0.642091 0.292589
422 2 0.0728484 0.71179 0.359991
414 1 0.150349 0.642463 0.362905
423 3 0.138484 0.721044 0.287823
412 5 0.207313 0.645913 0.289011
424 2 0.213358 0.711076 0.359098
426 5 0.362358 0.715203 0.356642
418 5 0.287851 0.641626 0.353949
425 2 0.288976 0.716406 0.286911
416 1 0.359912 0.641341 0.292319
427 3 0.429788 0.706891 0.282919
420 4 0.434984 0.649237 0.361317
431 3 0.00468025 0.574411 0.430419
446 1 0.0773988 0.575202 0.498187
433 2 0.148874 0.571249 0.431144
429 4 0.218966 0.501162 0.433206
435 1 0.287904 0.572984 0.436231
437 3 0.439532 0.575667 0.4288
1114 5 0.499957 0.504788 0.42919
432 1 0.0728941 0.642187 0.433516
453 2 0.0747923 0.71319 0.498008
449 3 0.148659 0.641781 0.49536
439 1 0.148916 0.715687 0.431855
434 1 0.218955 0.642534 0.431487
454 3 0.224618 0.716998 0.495668
440 2 0.293724 0.709957 0.426697
436 5 0.365106 0.639065 0.431742
1118 3 0.499081 0.648216 0.427421
441 1 0.427785 0.72325 0.430242
463 1 0.00739046 0.575376 0.569198
456 1 0.0759524 0.501433 0.565125
467 3 0.146305 0.576252 0.569759
448 4 0.219062 0.575095 0.505834
458 1 0.216516 0.502037 0.574453
471 1 0.289615 0.574427 0.58027
450 5 0.366652 0.573937 0.50418
444 5 0.289781 0.503491 0.510681
475 2 0.428085 0.568246 0.581209
445 5 0.433024 0.501762 0.509462
1142 3 0.499895 0.503905 0.584209
447 1 0.00107684 0.644561 0.50021
464 3 0.0706987 0.646317 0.568318
477 2 1.93404e-05 0.713768 0.566985
479 5 0.136417 0.711231 0.569041
468 1 0.213734 0.642468 0.569946
472 5 0.36457 0.637639 0.581412
481 3 0.285881 0.709978 0.578538
455 4 0.35565 0.704087 0.500942
451 3 0.287259 0.640713 0.507736
483 5 0.432047 0.711615 0.577728
452 2 0.442227 0.647625 0.509727
487 4 0.00696911 0.572931 0.715847
465 2 0.0725407 0.571848 0.64178
457 5 0.00711319 0.508501 0.644361
489 4 0.138221 0.57247 0.715754
469 3 0.218162 0.58192 0.641715
459 3 0.139461 0.501613 0.633006
473 2 0.357111 0.569678 0.654831
491 2 0.277451 0.571927 0.717573
1170 4 0.495909 0.500279 0.719332
1150 1 0.498987 0.576869 0.646625
493 1 0.429218 0.570541 0.718304
494 1 0.00725314 0.719908 0.717942
478 1 0.0699617 0.712062 0.643648
488 2 0.0728322 0.644939 0.719118
466 5 0.000650683 0.648906 0.641692
495 5 0.142555 0.718894 0.715291
490 1 0.206528 0.643656 0.722896
480 5 0.212806 0.704193 0.644432
470 2 0.134542 0.643276 0.646999
496 2 0.280601 0.714878 0.714818
474 1 0.291927 0.637528 0.654455
492 1 0.355247 0.649113 0.722723
482 1 0.362303 0.71246 0.644149
1163 3 0.499449 0.711312 0.646296
497 3 0.429827 0.717379 0.727965
476 4 0.430339 0.64398 0.653141
502 2 0.0678924 0.577619 0.795064
512 4 0.0658948 0.507585 0.860063
523 5 0.144316 0.573736 0.863574
504 2 0.210285 0.568235 0.783861
527 2 0.279869 0.574993 0.857762
506 1 0.351545 0.567051 0.779205
531 5 0.430041 0.566305 0.855689
501 4 0.431321 0.504239 0.793099
503 2 0.00607452 0.649525 0.787641
509 2 0.0745881 0.7174 0.78609
520 3 0.0716663 0.646693 0.864524
533 3 0.00509181 0.719638 0.86548
505 2 0.137583 0.647426 0.794359
535 5 0.145942 0.721276 0.862117
510 5 0.209541 0.721241 0.783538
524 5 0.211638 0.640369 0.849901
528 5 0.354131 0.643347 0.850964
507 1 0.285329 0.64303 0.785398
537 5 0.284779 0.712045 0.853537
511 2 0.354343 0.72006 0.785248
1205 2 0.4993 0.64469 0.857819
539 4 0.427027 0.716437 0.858352
508 5 0.425134 0.645469 0.788947
521 3 0.0739856 0.574697 0.937557
525 3 0.212137 0.571895 0.923166
355 1 0.143149 0.570659 0.99773
517 1 0.277466 0.503532 0.926308
529 3 0.349613 0.563569 0.927638
363 4 0.427965 0.567921 0.996992
1206 5 0.497893 0.574193 0.928208
534 4 0.0701725 0.718602 0.931044
526 3 0.147777 0.64628 0.924763
536 4 0.218495 0.715875 0.932667
356 5 0.201867 0.645491 0.99945
360 4 0.355693 0.639878 0.999471
538 3 0.359488 0.717829 0.933872
530 3 0.283189 0.63724 0.931743
532 3 0.432026 0.641949 0.933234
1037 3 0.494047 0.64433 0.996365
549 2 0.0742204 0.859731 0.0743659
540 2 0.0770091 0.79045 0.00176058
551 3 0.13953 0.859811 0.0045838
543 2 0.142742 0.791346 0.0755313
553 2 0.206204 0.861268 0.0715228
542 4 0.217467 0.787674 0.00218047
545 5 0.288968 0.790078 0.0655789
557 2 0.355604 0.856908 0.078303
546 4 0.429323 0.78634 0.0670639
1234 3 0.491698 0.857489 0.0682249
3 5 0.0696525 0.996948 0.0662005
548 5 0.0699616 0.931309 0.00230826
550 4 0.00190703 0.922964 0.0670631
554 1 0.143541 0.933871 0.0703478
7 5 0.216762 0.991557 0.0664293
558 4 0.284291 0.920685 0.0825648
560 4 0.425877 0.927463 0.0729376
688 4 0.494134 0.998012 0.0736989
1233 2 0.498783 0.933854 0.00291922
13 4 0.422837 0.999461 0.000745954
561 4 0.0695864 0.781219 0.141676
570 3 0.0710365 0.858301 0.221399
564 3 0.138861 0.780924 0.209517
572 1 0.137336 0.858253 0.146555
563 1 0.216843 0.782049 0.136315
574 4 0.211845 0.847197 0.21674
565 5 0.361266 0.785698 0.145182
578 1 0.364982 0.856464 0.215701
566 3 0.287204 0.783678 0.2156
576 4 0.284385 0.851663 0.148178
567 2 0.428682 0.780839 0.215944
580 4 0.43432 0.862961 0.146893
1247 4 0.498647 0.782709 0.147149
31 1 0.0715861 0.99834 0.219495
569 3 0.0763817 0.928969 0.14477
575 1 0.137491 0.921027 0.218722
573 4 0.20688 0.924993 0.143514
35 2 0.206408 0.999762 0.212126
39 5 0.356429 0.988696 0.221097
577 3 0.357224 0.919739 0.146254
579 5 0.286763 0.930305 0.217626
37 1 0.28184 0.995097 0.144009
41 4 0.425247 0.98965 0.142186
581 1 0.427688 0.932085 0.219771
582 2 0.0726253 0.783488 0.29127
591 2 0.0654195 0.855554 0.354643
589 1 0.00126213 0.859436 0.288794
585 5 0.14071 0.787181 0.357405
593 4 0.148116 0.853074 0.280746
584 3 0.213229 0.775402 0.289688
595 1 0.214426 0.851904 0.357722
587 4 0.285488 0.77626 0.353692
597 1 0.285156 0.853335 0.280912
586 1 0.359627 0.788102 0.283224
599 3 0.350992 0.847353 0.351503
588 4 0.433023 0.787827 0.35521
601 4 0.432647 0.858437 0.286441
590 1 0.0665247 0.928562 0.294402
59 1 0.0773264 0.997483 0.359687
596 5 0.143102 0.919508 0.354819
594 1 0.212389 0.926507 0.28131
61 3 0.138873 0.990726 0.285233
63 4 0.216579 0.994551 0.359197
67 1 0.359433 0.994784 0.358795
600 1 0.281134 0.920175 0.352084
598 2 0.351451 0.922943 0.288176
65 2 0.286244 0.999482 0.286729
602 3 0.431934 0.928384 0.359302
69 5 0.431378 0.993777 0.295718
603 4 0.0695926 0.783849 0.43156
613 3 0.00738071 0.777964 0.497909
608 1 0.145413 0.857411 0.429455
604 2 0.224522 0.785654 0.421414
619 3 0.209606 0.849536 0.494179
621 5 0.360664 0.851845 0.498165
610 1 0.288781 0.855425 0.432535
605 2 0.355934 0.785474 0.426083
615 2 0.28955 0.787709 0.498492
616 5 0.429506 0.78349 0.495929
612 1 0.42256 0.857208 0.428052
1303 2 0.497636 0.857313 0.498054
85 4 0.000241036 0.994608 0.426036
607 5 0.0673589 0.92294 0.426043
99 1 0.0730608 0.995431 0.498686
609 2 0.215264 0.917987 0.424466
620 3 0.138414 0.927153 0.498555
87 3 0.148911 0.996241 0.427579
101 3 0.210736 0.992716 0.499684
103 1 0.355317 0.99215 0.497638
622 5 0.277516 0.927218 0.493087
611 5 0.355977 0.92501 0.426123
89 2 0.286708 0.999633 0.422592
624 1 0.0742337 0.780348 0.571562
631 3 0.00787899 0.849757 0.57615
617 4 0.0763368 0.852808 0.503487
635 2 0.139285 0.853668 0.572744
626 1 0.217656 0.784189 0.57165
614 5 0.143362 0.784431 0.500417
639 1 0.286644 0.85172 0.573257
628 3 0.353179 0.784412 0.573388
643 3 0.433862 0.854267 0.570739
632 5 0.0747285 0.926939 0.570719
113 4 0.00483021 0.999788 0.566862
618 5 0.0072364 0.925653 0.502311
636 5 0.212307 0.918775 0.57086
117 2 0.145257 0.998493 0.570535
121 2 0.293596 0.997165 0.570895
640 5 0.356947 0.927546 0.570372
623 2 0.429252 0.92551 0.504378
625 3 0.00956601 0.780841 0.641775
633 1 0.07146 0.856992 0.643375
645 2 0.0797469 0.782524 0.715746
648 4 0.00497159 0.856124 0.712068
627 5 0.141734 0.783895 0.644736
650 4 0.14026 0.859792 0.715778
637 4 0.222598 0.860307 0.647403
646 5 0.214505 0.787582 0.710866
629 1 0.282729 0.784951 0.641768
652 3 0.285542 0.866064 0.71499
641 4 0.358399 0.856529 0.641892
647 3 0.353359 0.783787 0.712041
654 3 0.426818 0.856769 0.709483
630 3 0.431635 0.781278 0.643081
634 3 0.00565702 0.930618 0.642721
649 5 0.0718831 0.938754 0.712984
115 1 0.0802635 0.999564 0.637596
651 1 0.21385 0.931229 0.709836
638 3 0.145302 0.926715 0.650177
123 3 0.350754 0.993519 0.647301
642 2 0.284882 0.929396 0.645601
653 5 0.360271 0.932523 0.721194
147 2 0.435835 0.99917 0.715613
644 4 0.430101 0.931104 0.632394
659 2 0.0646907 0.861845 0.784746
666 3 0.0722179 0.787523 0.858203
673 3 0.00432083 0.861569 0.850539
655 2 0.00825078 0.785806 0.784478
656 4 0.148484 0.787393 0.788277
677 4 0.139651 0.861937 0.854319
661 1 0.211167 0.863183 0.784532
668 5 0.214583 0.79655 0.859169
657 4 0.280669 0.785613 0.789683
681 5 0.284692 0.869678 0.848111
663 2 0.353298 0.859068 0.782101
670 5 0.348715 0.792349 0.85337
685 1 0.421312 0.859432 0.855416
658 2 0.425534 0.792895 0.785321
1352 5 0.49704 0.792301 0.854643
1345 1 0.499614 0.863753 0.785013
674 4 0.0700018 0.931264 0.85595
662 2 0.14167 0.934621 0.785358
678 1 0.209429 0.928393 0.853826
664 1 0.284175 0.932808 0.78001
682 5 0.358118 0.930794 0.855755
159 4 0.364504 0.992362 0.78341
177 1 0.289743 0.996343 0.853362
665 4 0.431188 0.928537 0.789345
841 5 0.495801 0.997107 0.789793
1359 2 0.497486 0.924966 0.859592
675 1 0.0732066 0.861968 0.926839
667 2 0.00306074 0.793982 0.925328
547 3 0.0045425 0.855258 0.998191
669 3 0.145512 0.794903 0.934095
679 1 0.210138 0.86335 0.928965
544 1 0.350721 0.786644 0.998911
671 2 0.282143 0.787201 0.926845
683 4 0.353284 0.861636 0.930669
555 1 0.27895 0.859597 0.998562
1360 1 0.497699 0.854393 0.93076
672 3 0.424672 0.787416 0.928414
559 4 0.418668 0.863601 0.99504
1226 5 0.498539 0.785686 0.998878
676 2 0.00100639 0.930015 0.929641
680 5 0.138628 0.932811 0.927399
175 4 0.212711 0.996617 0.922406
552 2 0.212933 0.930719 0.999107
684 4 0.280855 0.920716 0.923747
556 3 0.351052 0.933025 0.997111
9 2 0.284569 0.996147 0.998785
686 4 0.427944 0.930828 0.929501
692 1 0.575111 0.0681136 0.0687476
696 5 0.707378 0.0699767 0.073832
690 2 0.641894 0.0721321 0.00198667
694 3 0.780512 0.0672948 0.00323048
700 3 0.855954 0.0625627 0.0685204
4 4 0.994774 0.0669624 0.069727
706 2 0.570423 0.205902 0.0748911
703 2 0.572898 0.142096 0.00609258
704 1 0.644648 0.210545 0.000362336
707 3 0.710751 0.139611 0.00300527
705 5 0.645866 0.144239 0.0781007
710 2 0.716629 0.220277 0.0708387
714 3 0.852471 0.220476 0.0716537
709 4 0.787947 0.146292 0.0704015
711 1 0.854997 0.138528 0.00188765
708 4 0.782554 0.2111 0.00170488
713 5 0.926065 0.140115 0.0707784
18 3 0.99489 0.211838 0.0690524
712 5 0.923213 0.2141 0.00475497
720 2 0.576029 0.0665611 0.213858
715 4 0.505276 0.0682633 0.142977
716 2 0.500382 0.00161997 0.223626
718 2 0.64086 0.0631835 0.146217
724 1 0.714735 0.072825 0.214362
721 4 0.715383 0.00152765 0.139267
728 3 0.851513 0.0690809 0.216502
722 3 0.78194 0.0732285 0.144247
725 2 0.843813 0.00591925 0.14278
726 3 0.924328 0.0688208 0.146827
32 5 0.993845 0.0722826 0.216595
727 5 0.926099 0.003027 0.222816
731 5 0.568374 0.139431 0.146665
734 4 0.569121 0.211628 0.215766
732 1 0.631277 0.213118 0.145733
738 3 0.705865 0.209918 0.208113
735 2 0.716299 0.140621 0.14076
733 4 0.644406 0.132558 0.214165
739 5 0.855246 0.137082 0.142203
742 5 0.858165 0.219504 0.216291
736 3 0.783577 0.219202 0.144441
737 1 0.78732 0.140212 0.210097
46 4 0.994285 0.21304 0.217086
741 2 0.922745 0.143067 0.21818
740 3 0.922919 0.222249 0.146075
43 3 0.988325 0.144774 0.141717
748 1 0.573713 0.0764179 0.361112
743 5 0.506085 0.0724766 0.289526
744 5 0.506207 0.00207796 0.360408
746 3 0.63496 0.0712151 0.291034
752 4 0.716069 0.0718146 0.361705
749 4 0.711857 0.00618517 0.29146
747 2 0.641379 0.000812342 0.357533
751 4 0.784362 0.000198745 0.35617
750 3 0.781689 0.0790154 0.289003
756 4 0.851217 0.0730012 0.361805
60 1 0.998595 0.075855 0.352426
754 1 0.929124 0.0718843 0.29157
57 3 0.991438 0.00243823 0.287334
755 1 0.924547 0.0030765 0.357177
759 4 0.566104 0.143755 0.288434
762 2 0.570178 0.21151 0.357354
758 3 0.506633 0.13961 0.364431
757 2 0.501745 0.218365 0.288943
760 3 0.645604 0.209403 0.287666
761 1 0.646509 0.140024 0.360846
763 4 0.707972 0.137703 0.286421
766 5 0.710882 0.214323 0.358255
764 3 0.783977 0.219364 0.278217
765 1 0.781051 0.145276 0.35574
770 2 0.858096 0.212856 0.356614
767 1 0.852321 0.139282 0.291322
768 1 0.92597 0.21918 0.285807
769 5 0.924753 0.144806 0.362029
74 3 0.998794 0.214224 0.350656
71 4 0.997854 0.142739 0.287023
787 1 0.576196 0.0723162 0.497915
771 3 0.501813 0.0688294 0.43747
773 1 0.646001 0.0675963 0.430764
789 1 0.716399 0.077115 0.496898
791 4 0.850135 0.0715503 0.49713
775 3 0.782745 0.0715445 0.434392
777 5 0.929378 0.0661352 0.43098
794 5 0.575501 0.210175 0.498555
792 1 0.500398 0.143439 0.493643
779 1 0.576001 0.13985 0.4224
780 3 0.640909 0.206719 0.429131
781 5 0.714122 0.144932 0.437458
796 1 0.705222 0.215631 0.499342
798 2 0.858023 0.217879 0.499846
782 1 0.780648 0.215178 0.428202
783 1 0.857392 0.145665 0.433972
784 3 0.917212 0.216741 0.431486
92 5 0.998553 0.142081 0.419256
801 2 0.574415 0.00364383 0.571553
799 5 0.501811 0.0758428 0.558796
805 3 0.721286 0.0119083 0.571222
802 4 0.642158 0.0692948 0.57206
806 5 0.783698 0.0753854 0.56627
809 1 0.851778 0.00204044 0.567107
810 4 0.928607 0.0640493 0.564259
815 5 0.573966 0.138815 0.577492
816 3 0.649608 0.218363 0.571029
819 4 0.714887 0.143395 0.568851
793 1 0.640688 0.141711 0.500588
823 2 0.862956 0.145766 0.565282
820 5 0.783029 0.220723 0.563876
795 1 0.786923 0.146223 0.501149
797 4 0.936802 0.143497 0.505974
824 1 0.933055 0.215428 0.570969
804 5 0.570921 0.0708435 0.648559
800 2 0.502377 0.000351364 0.642527
829 1 0.641131 0.0746991 0.714258
808 5 0.714141 0.0729779 0.649482
803 3 0.643978 0.00155507 0.65178
812 3 0.859218 0.0653596 0.645912
831 3 0.784386 0.0763207 0.711049
833 5 0.92825 0.0711742 0.71175
835 5 0.56823 0.148074 0.709004
818 2 0.565724 0.213362 0.642556
834 4 0.505834 0.218992 0.722685
822 3 0.710662 0.214166 0.644314
837 2 0.712073 0.149829 0.71264
836 4 0.641506 0.216323 0.714669
817 5 0.647639 0.133549 0.643909
821 3 0.786059 0.149503 0.636795
838 1 0.785911 0.219764 0.70806
826 4 0.849373 0.221627 0.636673
839 3 0.857806 0.145308 0.700298
130 2 0.989831 0.214815 0.646924
148 1 0.998535 0.143109 0.71819
840 5 0.918669 0.214645 0.717114
825 1 0.930502 0.141355 0.632991
843 3 0.566685 0.0664004 0.785577
855 2 0.500488 0.0687389 0.857875
858 4 0.641679 0.0766171 0.857074
845 1 0.714236 0.0766953 0.783943
861 4 0.711707 0.00661416 0.855804
862 2 0.78511 0.0749467 0.853063
847 2 0.850805 0.0761881 0.786556
844 4 0.782301 0.0072181 0.782223
865 1 0.848949 0.00486581 0.849848
866 1 0.918383 0.0758239 0.852791
169 3 0.999079 0.00608102 0.851977
156 4 0.997217 0.0659031 0.780124
846 4 0.926399 0.00529837 0.782504
848 5 0.508831 0.142215 0.787896
850 4 0.574978 0.217033 0.791529
871 1 0.569679 0.139003 0.857567
849 3 0.640324 0.140612 0.784303
872 4 0.649793 0.21695 0.855374
852 2 0.713706 0.214673 0.787518
875 2 0.716879 0.139767 0.862285
851 4 0.784804 0.143812 0.780065
876 3 0.782417 0.213967 0.853701
854 5 0.852812 0.215599 0.785562
879 2 0.850998 0.144998 0.85501
853 1 0.922864 0.143168 0.784607
880 3 0.92324 0.215224 0.858502
183 5 0.990994 0.149724 0.858608
163 1 0.99102 0.216682 0.786708
860 5 0.577406 0.0776761 0.932433
864 5 0.71584 0.0759899 0.930815
859 1 0.643989 0.0042333 0.930469
863 5 0.795999 0.000152614 0.925144
868 3 0.858354 0.0646758 0.927013
172 4 0.995265 0.0721885 0.923819
698 2 0.927066 0.0715426 0.999888
874 2 0.570512 0.206955 0.934677
873 4 0.648384 0.147627 0.922681
878 2 0.721626 0.219816 0.9271
877 3 0.788204 0.14063 0.929928
882 2 0.848416 0.214634 0.921343
881 3 0.923327 0.146574 0.924283
888 5 0.569299 0.359695 0.0746506
884 4 0.505002 0.283827 0.073183
887 5 0.633784 0.278224 0.0716423
892 5 0.715226 0.361137 0.0623101
891 4 0.789427 0.291273 0.063629
896 5 0.861043 0.351684 0.0699777
895 2 0.93247 0.284924 0.0721269
200 1 0.998589 0.354886 0.0701925
894 1 0.927112 0.355119 0.00209144
1032 4 0.565768 0.495314 0.0769936
899 2 0.640258 0.433176 0.0671498
1034 1 0.715713 0.499747 0.0695865
1036 4 0.859033 0.496921 0.0745339
901 1 0.790507 0.424042 0.0748222
902 2 0.858671 0.433813 0.00391912
345 3 0.999478 0.499101 0.0729781
903 5 0.929036 0.42298 0.0758562
906 2 0.570661 0.284441 0.147656
909 1 0.565957 0.358404 0.224197
907 5 0.639469 0.352786 0.136415
908 1 0.63974 0.286319 0.216032
910 3 0.709694 0.284091 0.142122
913 2 0.707841 0.356231 0.211
917 3 0.858174 0.348278 0.214552
914 4 0.853228 0.288344 0.143874
911 2 0.781916 0.352754 0.137943
912 5 0.775785 0.297233 0.215901
218 3 0.997908 0.284842 0.152742
915 4 0.93669 0.356088 0.139027
916 1 0.932436 0.286846 0.217477
919 5 0.569164 0.428495 0.149876
921 2 0.707131 0.427765 0.13824